From tdubuis at scconsultants.com  Thu Nov  2 02:35:52 2006
From: tdubuis at scconsultants.com (Thierry Dubuis)
Date: Thu Nov  2 02:36:10 2006
Subject: [Paraview] particle folowing
In-Reply-To: <45481886.4080602@comcast.net>
References: <4545FF01.5070500@scconsultants.com> <4546910C.80500@comcast.net>
	<45474B17.6020303@scconsultants.com> <45481886.4080602@comcast.net>
Message-ID: <45499FD8.6050101@scconsultants.com>

Thanks for your help Samuel, Josu? and Chrsitan.
I can see my particles with vtu file with type cells 1 (point) if I 
start the cell number by 0.

Best regards,

Thierry



SamuelKey wrote:

> Thierry,
>
> Remember these readers were written by C-programmers. They want 
> offsets for "connectivity" not node numbers.
>
> I changed your data below under connectivity from 1,2,3, ... ,10 to 
> 0,1,2, ... ,9. you will get points on your screen.
>
> Don't forget to dail-up the point size og the display face-sheet.  Now 
> all you have to do is data to your points (or cells
> as you like.
>
> Sam Key
>
>
> Thierry Dubuis wrote:
>
>> Hello all,
>>
>> Thanks again for your answers.
>> I try to define a vtu file with cells of type 1. (I attach my file)
>>
>> I don't understand but ParaView 2.4  made a error when I open this file.
>> If somebody could tell me where the problem is ?
>> - In my vtu file
>> - In the "open" code source
>>
>> ------------------------------------------------------------------------
>>
>> <VTKFile type="UnstructuredGrid" version="0.1" 
>> byte_order="LittleEndian">
>>   <UnstructuredGrid>
>>     <Piece NumberOfPoints="10" NumberOfCells="10">
>>       <Points>
>>         <DataArray type = "Float32" NumberOfComponents="3" 
>> format="ascii">
>> 0.0 0.0 0.0
>> 0.1 0.1 0.1
>> 0.2 0.2 0.2
>> 0.3 0.3 0.3
>> 0.4 0.4 0.4
>> 0.5 0.5 0.5
>> 0.1 0.0 0.0
>> 0.2 0.0 0.0
>> 0.0 0.1 0.0
>> 0.0 0.0 0.1
>>         </DataArray>
>>       </Points>
>>       <Cells>
>>         <DataArray type="Int32" Name="connectivity" format="ascii">
>
> 0
> 1
> 2
> 3
> 4
> 5
> 6
> 7
> 8
> 9
>
>>         </DataArray>
>>         <DataArray type="Int32" Name="offsets" format="ascii">
>> 1
>> 2
>> 3
>> 4
>> 5
>> 6
>> 7
>> 8
>> 9
>> 10
>>         </DataArray>
>>         <DataArray type="UInt8" Name="types" format="ascii">
>> 1
>> 1
>> 1
>> 1
>> 1
>> 1
>> 1
>> 1
>> 1
>> 1
>>         </DataArray>
>>       </Cells>
>>     </Piece>
>>   </UnstructuredGrid>
>> </VTKFile>
>>   
>> ------------------------------------------------------------------------
>>
>> _______________________________________________
>> ParaView mailing list
>> ParaView@paraview.org
>> http://www.paraview.org/mailman/listinfo/paraview
>>   
>
>
>
>


-- 
Thierry Dubuis
--------------------------------
Sciences & Computers Consultants
Tel : 04 77 49 75 84
Std : 04 77 49 75 80
Fax : 04 77 33 68 04

From kriminal at inwind.it  Thu Nov  2 03:46:53 2006
From: kriminal at inwind.it (El Boustany Cristiano)
Date: Thu Nov  2 03:47:19 2006
Subject: [Paraview] help adding objects in the active window
Message-ID: <J83HQ5$3F88A86111309E463BC243C8FA0E4A6E@libero.it>

Hi all,
I have a problem...I hade to write a new interactor style to move an abject (a cone) by another dataset. I want to create a this cone in the "display area" and then start my new interactor style and let move my cone... I can I do this?!
my biggest problem is to create this cone in the display area so  it can move (like a trasform filter) in another image previously  opened.
thanks in advance




From Luc.Bordier at InergyAutomotive.com  Thu Nov  2 04:22:18 2006
From: Luc.Bordier at InergyAutomotive.com (Bordier, Luc)
Date: Thu Nov  2 04:22:22 2006
Subject: [Paraview] step time display
Message-ID: <BA212E6DB0B8964CBA5CAADB1E75EB7801BBE0C4@DOVEXC582042.inapps.inergyautomotive.com>

Hello,

 

I'm quite a new user of paraview and I'm using it as a fluent
post-processor.

 

I'm loading transient data and doing animations of it. I would like to
have the text information of the time value appearing next to my model
representation during the animation.

 

I've understood that I can use some brackets [] to enter paraview vtk
commands in the annotation panel but I don't know what is the command to
write to have the time value to be displayed in the viewport window.

 

Please can somebody tell me how to do it?

 

Thank you

 

Luc

 

-------------- next part --------------
An HTML attachment was scrubbed...
URL: http://public.kitware.com/pipermail/paraview/attachments/20061102/f09f85c6/attachment.html
From tfoggia at cscs.ch  Thu Nov  2 11:30:10 2006
From: tfoggia at cscs.ch (Theophane Foggia)
Date: Thu Nov  2 11:16:42 2006
Subject: [Paraview] time value in calculator filter
Message-ID: <454A1D12.7030301@cscs.ch>

Hi,
I've got a nice transient dataset in paraview and I can see the live
time annotation in the scene right lower angle. Now I would like to use
this value in filters. Especially I'd like to ask whether there is a way
to access the current timestep value in the Calculator filter?
Thanks,
Theophane

-- 
Theophane Foggia
CSCS - Swiss National Supercomputing Centre   | Tel: +41 (0)91 610 82 14
via Cantonale, 6928 Manno, Switzerland        | Fax: +41 (0)91 610 82 82

From Luc.Bordier at InergyAutomotive.com  Thu Nov  2 11:29:09 2006
From: Luc.Bordier at InergyAutomotive.com (Bordier, Luc)
Date: Thu Nov  2 11:29:26 2006
Subject: [Paraview] time value in calculator filter
Message-ID: <BA212E6DB0B8964CBA5CAADB1E75EB7801BBE491@DOVEXC582042.inapps.inergyautomotive.com>

Hello,

 

Sorry I can't answer to your question but I think you can help me
because you have described exactly what I 'm trying to do : 

 

I would like to have time annotation in the viewport for transient data.

 

Please can you tell me how to do it ?

 

Thanks 

 

Luc Bordier

INERGY Automotive Systems

Compiegne, FRANCE

-------------- next part --------------
An HTML attachment was scrubbed...
URL: http://public.kitware.com/pipermail/paraview/attachments/20061102/1be8caba/attachment.html
From eschenbe at psc.edu  Thu Nov  2 15:16:37 2006
From: eschenbe at psc.edu (Kent Eschenberg)
Date: Thu Nov  2 15:16:42 2006
Subject: [Paraview] Time 0 Not Repeated In Loop
Message-ID: <43737DBC0A1DE3A8B87CB938@harpo.psc.edu>

Printing "currenttime" in the inner loop in vtkAnimationScene::Play shows a value of 0, 1, ..., 9 as expected (10 frames, sequence mode). However, when looping is on, the 2nd and subsequent loops start at 1 instead of 0.

If I have this right then data from the first time step would not be seen after the first pass when looping.

Using ParaView 2.4.4, FC5, Intel P4.

Kent
Pittsburgh Supercomputing Center

From mugjfyi at yahoo.com  Thu Nov  2 17:30:38 2006
From: mugjfyi at yahoo.com (yi mu)
Date: Thu Nov  2 17:30:44 2006
Subject: Antw: [Paraview] Use paraview with a SGI prism and a Cave
In-Reply-To: <45471AB4.0548.0038.3@jku.at>
Message-ID: <20061102223038.18060.qmail@web62402.mail.re1.yahoo.com>

 Hi Christian

Thank you very much for your documentation, I was able
to run cave module. I have a cube display with four
walls, including floor. I am now using three of them:
two walls and a floor, the geometry displays on the
wall ok but not on the floor, do you have any idea how
to specify the coordinates for the floor?

Here is the coordinates for the two walls:

<Machine Name="prism_d2"
  Environment="DISPLAY=:0.0"
  LowerLeft="-1.0 0 -1.0"
  LowerRight="0 0 -1.0"
  UpperLeft="-1.0 1.0  -1.0" />

  <Machine Name="prism_d3"
  Environment="DISPLAY=:0.2"
  LowerLeft="0 0 -1 "
  LowerRight="1 0 -1 "
  UpperLeft="0 1 -1" />

Thank you in advance.

Yi

--- Christian Wohlschlager
<Christian.Wohlschlager@jku.at> wrote:

> ** Reply Requested When Convenient **
> 
> Hi Yi !
> 
> In fact i use 2.5 because i can read in .cube
> gaussian files for 2.4
> there is an error but the cave module ??? (should
> run also)
> The problem is if you have a cave with 3 walls you
> need 3 processors
> for 4 4 processors ...
> i can run the pvserver with the cave display and mpi
> and on the client
> in our case (maybe also in yours) the same.
> 
> so run :
> on prism:
> >mpirun -np 3 .\pvserver cave.pvx
> also on prism another screen or session
> > ./pvclient --stereo 
> 
> you can see the client is connected to the server
> and the Client gui is
> opend on the display of pvclient is set.
> 
> the actual cave display is set in the cave.pvx 
> 
> Be carefull in defining cave.pvx during my struggle
> with paraview on
> the cave i found out the this is more or less on of
> the keys in getting
> a good cave visualisation.
> 
> You can send me your cave.pvx (what ever you named
> it) and your
> configuration and i can give my hints.
> 
> i be happy to help you
> 
> christian
> 
> 
> 
> >>> yi mu <mugjfyi@yahoo.com> 10/30/06 11:55  >>>
> Hi, Christian,
> 
> We have the same configuration as yours, so I am
> very
> interested in trying the cave rendering mode out.
> From
> your document, step 2, it says Paraview 2.5 (from
> cvs)
> with MPI enabled and Paraview 2.5 not MPI enabled,
> do
> you  mean the server will run with mpi enable and
> the
> client with mpi not enabled? which means pvserver
> will
> be compiled with MPI enabled and pvclient will be
> compiled without MPI enabled? 
> 
> 
> Do we really need paraview2.5, how about lower 
> stable
> version, like paraview2.4? 
> 
> Thank you in advance for your help and I really
> appreciate your efforts in investigating paraview
> cave
> render mode.
> 
> 
> 
> Yi
> 
> 
>  
>
____________________________________________________________________________________
> Everyone is raving about the all-new Yahoo! Mail 
> (http://advision.webevents.yahoo.com/mailbeta/)
> 
> _______________________________________________
> ParaView mailing list
> ParaView@paraview.org 
> http://www.paraview.org/mailman/listinfo/paraview
> 


 
____________________________________________________________________________________
Everyone is raving about the all-new Yahoo! Mail 
(http://advision.webevents.yahoo.com/mailbeta/)

[...]
 <PointData> 
 <DataArray type="Float32" Name="energy" format="ascii">  
..... 4.4779e-32 4.21927e-35 1.49749e-40 1.56851e-30 7.46548e-41 2.58133e-40 .......
</DataArray>
<Points> 
  <DataArray type="Float32" NumberOfComponents="3" format="ascii" > 
 0 0 0 	1 0 0 	2 0 0 	3 0 0 	4 0 0 	5 0 0 	6 0 0 	7 0 0 	8 0 0 	9 0 0 	10 0 0  .......
</Points> 
 </Piece> 
</StructuredGrid>
</VTKFile>
------------------				 
Nancy
2006-11-20






From biddisco at cscs.ch  Mon Nov 20 03:32:41 2006
From: biddisco at cscs.ch (John Biddiscombe)
Date: Mon Nov 20 03:33:02 2006
Subject: [Paraview] Some D3 and MPI questions
Message-ID: <45616829.80403@cscs.ch>

Part 1 : D3

I'd like to add the DistributedDataFilter into one of our readers. It 
cannot necessarily partition the data well at read time due to the 
format of the data so having the readers do the distribution using D3 is 
my best bet.
When the TimeStep changes, the geometry changes. I'd like to use the

"// Enhancement: You can set the k-d tree decomposition, rather than
// have D3 compute it.  This allows you to divide a dataset using
// the decomposition computed for another dataset.  Obtain a description
// of the k-d tree cuts this way:"

Capability, to generate the BSP tree when the first time step is loaded, 
and then re-use it when successive steps are loaded. However, I'm 
slightly uncertain about one (actually more) thing.
It goes on to say
"  //    When this filter executes, it creates a vtkPKdTree (K-d tree)
  //    data structure in parallel which divides the total distributed
  //    data set into spatial regions.  The K-d tree object also creates
  //    tables describing which processes have data for which
  //    regions.  Only then does this filter redistribute
  //    the data according to the region assignment scheme."

Now as each time step is produced, one part of the mesh is rotating, it 
occupies the same space, so the BSP partition should be fine (providing 
some small tolerance is allowed for), but the partitioning/allocation of 
cells between the spatial regions is going to be changing. I don';t want 
the BSP tree to store the partitioning of cells between processors, only 
the spatial regions themselves.
If I save the BSPCuts (vtkBSPCuts *cuts = 
D3Object1->GetKdtree()->GetCuts()) and re-use it on later time steps, is 
there a way I can tell the D3 filter to not re-use the cell allocation 
between processors, but instead to recompute it using the cuts provided.
Perhaps it will do this if I SetRetainKdtree(0), but supply the Cuts 
from above.

Have I understood this correctly. If not, is there a way of achieving 
what I want.

Part 2 : MPI/D3
If I create a D3 filter with an instantiation in each process as part of 
the reader, I will assign the MPI controller using the 
SetController(this->Controller) and this Controller was taken from 
MPIController::GetGlobalController - but this seems dangerous, because 
if I later turn on ordered compositing, or perhaps use a D3 filter in 
the pipeline, how does the MPI controller know which D3 filter belongs 
to which part of the pipeline. There will be two D3 filters per process 
one in the reader and one later in the pipeline and they both have the 
same RMI signatures. What should I do to ensure that the D3 in the 
reader doesn't send data to the D3 in the compositor and vice versa. 
Previously when I've used the MPI communicator, there has been only one 
of my filters per process so no possible conflict.

Thanks

JB


-- 
John Biddiscombe,                            email:biddisco @ cscs.ch
http://www.cscs.ch/about/BJohn.php
CSCS, Swiss National Supercomputing Centre  | Tel:  +41 (91) 610.82.07
Via Cantonale, 6928 Manno, Switzerland      | Fax:  +41 (91) 610.82.82

From eschenbe at psc.edu  Mon Nov 20 09:58:15 2006
From: eschenbe at psc.edu (Kent Eschenberg)
Date: Mon Nov 20 09:58:20 2006
Subject: [Paraview] Transparent Surfaces Mottled
Message-ID: <7DA743946351514B4379886A@harpo.psc.edu>

It seems that there is a bug that causes transparent surfaces to have strange shading. This might be related to bug #2347 reported 10/27/2005 (it seems to still be open).

When the opacity is changed from 1 the formerly smooth surface becomes mottled (see attachment opaTst1.jpg). I've checked the surface normals and they are correct. The built-in sphere source (see attachment opaTst2.jpg) shows similar problems. Both
images were generated using ParaView's File->SaveImage and look the same as on screen.

System:
ParaView 2.4.4
Fedora Core 5
Pentium 4

Have others seen this effect? We've seen it on several systems and it makes transparent surfaces almost useless.

Kent
Pittsburgh Supercomputing Center
-------------- next part --------------
A non-text attachment was scrubbed...
Name: opaTst1.jpg
Type: image/jpeg
Size: 5846 bytes
Desc: not available
Url : http://public.kitware.com/pipermail/paraview/attachments/20061120/83c348ea/opaTst1-0001.jpg
-------------- next part --------------
A non-text attachment was scrubbed...
Name: opaTst2.jpg
Type: image/jpeg
Size: 10079 bytes
Desc: not available
Url : http://public.kitware.com/pipermail/paraview/attachments/20061120/83c348ea/opaTst2-0001.jpg
From biddisco at cscs.ch  Mon Nov 20 11:42:27 2006
From: biddisco at cscs.ch (John Biddiscombe)
Date: Mon Nov 20 11:43:23 2006
Subject: [Paraview] Some D3 and MPI questions
In-Reply-To: <45616829.80403@cscs.ch>
References: <45616829.80403@cscs.ch>
Message-ID: <4561DAF3.1020208@cscs.ch>

I wrote
[lots of stuff deleted]

So I tried it and here's a clip of an animation that shows what I don't 
want.
ftp://ftp.cscs.ch/out/biddisco/flowviz/D3_Test_1.avi

The partitioning flips after the first 15 or so time steps, and then 
flips back. The distribution is very good (this snapshot doesn't show 
the rest of the data, but it is well balanced).

I'd like to say
D3->KeepTheseCuttingPlanes(planes from earlier)

and have the spatial regions always the same.

Can it be done, and if I'm willing to dig into the BSP code is there a 
clear point at which cellIDs can be stuffed into regions that are 
already defined? I want the spatial regions to be the same in each time 
step, because particle tracking across the regions is better if the 
spatial zones are not jumping about.

TIA

JB



> Part 1 : D3
>
> I'd like to add the DistributedDataFilter into one of our readers. It 
> cannot necessarily partition the data well at read time due to the 
> format of the data so having the readers do the distribution using D3 
> is my best bet.
> When the TimeStep changes, the geometry changes. I'd like to use the
>
> "// Enhancement: You can set the k-d tree decomposition, rather than
> // have D3 compute it.  This allows you to divide a dataset using
> // the decomposition computed for another dataset.  Obtain a description
> // of the k-d tree cuts this way:"
>
> Capability, to generate the BSP tree when the first time step is 
> loaded, and then re-use it when successive steps are loaded. However, 
> I'm slightly uncertain about one (actually more) thing.
> It goes on to say
> "  //    When this filter executes, it creates a vtkPKdTree (K-d tree)
>  //    data structure in parallel which divides the total distributed
>  //    data set into spatial regions.  The K-d tree object also creates
>  //    tables describing which processes have data for which
>  //    regions.  Only then does this filter redistribute
>  //    the data according to the region assignment scheme."
>
> Now as each time step is produced, one part of the mesh is rotating, 
> it occupies the same space, so the BSP partition should be fine 
> (providing some small tolerance is allowed for), but the 
> partitioning/allocation of cells between the spatial regions is going 
> to be changing. I don';t want the BSP tree to store the partitioning 
> of cells between processors, only the spatial regions themselves.
> If I save the BSPCuts (vtkBSPCuts *cuts = 
> D3Object1->GetKdtree()->GetCuts()) and re-use it on later time steps, 
> is there a way I can tell the D3 filter to not re-use the cell 
> allocation between processors, but instead to recompute it using the 
> cuts provided.
> Perhaps it will do this if I SetRetainKdtree(0), but supply the Cuts 
> from above.
>
> Have I understood this correctly. If not, is there a way of achieving 
> what I want.
>
> Part 2 : MPI/D3
> If I create a D3 filter with an instantiation in each process as part 
> of the reader, I will assign the MPI controller using the 
> SetController(this->Controller) and this Controller was taken from 
> MPIController::GetGlobalController - but this seems dangerous, because 
> if I later turn on ordered compositing, or perhaps use a D3 filter in 
> the pipeline, how does the MPI controller know which D3 filter belongs 
> to which part of the pipeline. There will be two D3 filters per 
> process one in the reader and one later in the pipeline and they both 
> have the same RMI signatures. What should I do to ensure that the D3 
> in the reader doesn't send data to the D3 in the compositor and vice 
> versa. Previously when I've used the MPI communicator, there has been 
> only one of my filters per process so no possible conflict.
>
> Thanks
>
> JB
>
>


-- 
John Biddiscombe,                            email:biddisco @ cscs.ch
http://www.cscs.ch/about/BJohn.php
CSCS, Swiss National Supercomputing Centre  | Tel:  +41 (91) 610.82.07
Via Cantonale, 6928 Manno, Switzerland      | Fax:  +41 (91) 610.82.82

From kmorel at sandia.gov  Mon Nov 20 13:13:06 2006
From: kmorel at sandia.gov (Moreland, Kenneth)
Date: Mon Nov 20 13:13:19 2006
Subject: [Paraview] Some D3 and MPI questions
In-Reply-To: <4561DAF3.1020208@cscs.ch>
Message-ID: <7137A9E1D1768C44BE7DF11D30FAB32303122AB2@ES21SNLNT.srn.sandia.gov>

John,

I'm a little confused.  Once you call SetCuts on a k-d tree, the
distribution should be set and will never be recalculated.  Are you
calling D3->GetKdTree()->SetCuts()?

-Ken

> -----Original Message-----
> From: paraview-bounces+kmorel=sandia.gov@paraview.org
[mailto:paraview-
> bounces+kmorel=sandia.gov@paraview.org] On Behalf Of John Biddiscombe
> Sent: Monday, November 20, 2006 9:42 AM
> To: John Biddiscombe
> Cc: Paraview Mailing List
> Subject: Re: [Paraview] Some D3 and MPI questions
> 
> I wrote
> [lots of stuff deleted]
> 
> So I tried it and here's a clip of an animation that shows what I
don't
> want.
> ftp://ftp.cscs.ch/out/biddisco/flowviz/D3_Test_1.avi
> 
> The partitioning flips after the first 15 or so time steps, and then
> flips back. The distribution is very good (this snapshot doesn't show
> the rest of the data, but it is well balanced).
> 
> I'd like to say
> D3->KeepTheseCuttingPlanes(planes from earlier)
> 
> and have the spatial regions always the same.
> 
> Can it be done, and if I'm willing to dig into the BSP code is there a
> clear point at which cellIDs can be stuffed into regions that are
> already defined? I want the spatial regions to be the same in each
time
> step, because particle tracking across the regions is better if the
> spatial zones are not jumping about.
> 
> TIA
> 
> JB
> 
> 
> 
> > Part 1 : D3
> >
> > I'd like to add the DistributedDataFilter into one of our readers.
It
> > cannot necessarily partition the data well at read time due to the
> > format of the data so having the readers do the distribution using
D3
> > is my best bet.
> > When the TimeStep changes, the geometry changes. I'd like to use the
> >
> > "// Enhancement: You can set the k-d tree decomposition, rather than
> > // have D3 compute it.  This allows you to divide a dataset using
> > // the decomposition computed for another dataset.  Obtain a
description
> > // of the k-d tree cuts this way:"
> >
> > Capability, to generate the BSP tree when the first time step is
> > loaded, and then re-use it when successive steps are loaded.
However,
> > I'm slightly uncertain about one (actually more) thing.
> > It goes on to say
> > "  //    When this filter executes, it creates a vtkPKdTree (K-d
tree)
> >  //    data structure in parallel which divides the total
distributed
> >  //    data set into spatial regions.  The K-d tree object also
creates
> >  //    tables describing which processes have data for which
> >  //    regions.  Only then does this filter redistribute
> >  //    the data according to the region assignment scheme."
> >
> > Now as each time step is produced, one part of the mesh is rotating,
> > it occupies the same space, so the BSP partition should be fine
> > (providing some small tolerance is allowed for), but the
> > partitioning/allocation of cells between the spatial regions is
going
> > to be changing. I don';t want the BSP tree to store the partitioning
> > of cells between processors, only the spatial regions themselves.
> > If I save the BSPCuts (vtkBSPCuts *cuts =
> > D3Object1->GetKdtree()->GetCuts()) and re-use it on later time
steps,
> > is there a way I can tell the D3 filter to not re-use the cell
> > allocation between processors, but instead to recompute it using the
> > cuts provided.
> > Perhaps it will do this if I SetRetainKdtree(0), but supply the Cuts
> > from above.
> >
> > Have I understood this correctly. If not, is there a way of
achieving
> > what I want.
> >
> > Part 2 : MPI/D3
> > If I create a D3 filter with an instantiation in each process as
part
> > of the reader, I will assign the MPI controller using the
> > SetController(this->Controller) and this Controller was taken from
> > MPIController::GetGlobalController - but this seems dangerous,
because
> > if I later turn on ordered compositing, or perhaps use a D3 filter
in
> > the pipeline, how does the MPI controller know which D3 filter
belongs
> > to which part of the pipeline. There will be two D3 filters per
> > process one in the reader and one later in the pipeline and they
both
> > have the same RMI signatures. What should I do to ensure that the D3
> > in the reader doesn't send data to the D3 in the compositor and vice
> > versa. Previously when I've used the MPI communicator, there has
been
> > only one of my filters per process so no possible conflict.
> >
> > Thanks
> >
> > JB
> >
> >
> 
> 
> --
> John Biddiscombe,                            email:biddisco @ cscs.ch
> http://www.cscs.ch/about/BJohn.php
> CSCS, Swiss National Supercomputing Centre  | Tel:  +41 (91) 610.82.07
> Via Cantonale, 6928 Manno, Switzerland      | Fax:  +41 (91) 610.82.82
> 
> _______________________________________________
> ParaView mailing list
> ParaView@paraview.org
> http://www.paraview.org/mailman/listinfo/paraview


From biddisco at cscs.ch  Mon Nov 20 13:38:30 2006
From: biddisco at cscs.ch (John Biddiscombe)
Date: Mon Nov 20 13:38:37 2006
Subject: [Paraview] Some D3 and MPI questions
In-Reply-To: <7137A9E1D1768C44BE7DF11D30FAB32303122AB2@ES21SNLNT.srn.sandia.gov>
References: <7137A9E1D1768C44BE7DF11D30FAB32303122AB2@ES21SNLNT.srn.sandia.gov>
Message-ID: <4561F626.4070109@cscs.ch>

Ken,

> I'm a little confused.  Once you call SetCuts on a k-d tree, the
> distribution should be set and will never be recalculated.  Are you
> calling D3->GetKdTree()->SetCuts()?
>   
On the animation I posted, I was not re-using the cuts, I was allowing
the tree to be recomputed on each timestep.

When I tried to re-use the cuts, as below - the first time the reader
executes, we have this->FirstTime=true and the Cuts are saved, then
reused on subsequent passes - but the first frame looks ok and the ones
after look very dodgy.

The data is Multiblock and the D3 filter accepts only Unstructured, so I
pass the data through a multigroupscalar filter and force the pieces
manually to trigger the copmposite data pipeline into looping for me and
generating multiblock D3 output (it works very nicely).
The first execution gives the "right" looking data, but after that it
changes and looks less well balanced. I concluded that it was storing
not just the cuts, but also some Cell IDs and since these were invalid
onsubsequent time steps, the thing failed to generate the proper output.
It does seem to work consistently after the second execution, ie it does
not change as you correctly state, but it doesn't look so good either -
and why does it change the second time. I'm checking to see if I've made
a boo-boo somewhere, but I welcome help.

cheers

JB


#ifdef USE_D3
    if (this->updateNumPieces>1) {
      //
      // Before doing any D3 filter operation, set a barrier point to
synchronize things
      //
      this->Controller->Barrier();

      vtkCompositeDataPipeline *cp = vtkCompositeDataPipeline::New();
      this->D3->SetDefaultExecutivePrototype(cp);
      this->scalars->SetDefaultExecutivePrototype(cp);
      cp->Delete();

      vtkStreamingDemandDrivenPipeline* exec =
vtkStreamingDemandDrivenPipeline::SafeDownCast(this->D3->GetExecutive());
      exec->SetUpdateNumberOfPieces(exec->GetOutputInformation(0),
this->updateNumPieces);
      exec->SetUpdatePiece(exec->GetOutputInformation(0),
this->updatePiece);

      if (!this->FirstStep && this->BSPcuts) {
        this->D3->GetKdtree()->SetCuts(this->BSPcuts);
        CSCSOutputMacro(<<"Using BSPCuts from previously ");
      }
      this->scalars->SetInput(mb);
      this->D3->SetInputConnection(this->scalars->GetOutputPort());
      this->D3->SetController(this->Controller);
      this->D3->SetBoundaryModeToAssignToAllIntersectingRegions();
      this->D3->UseMinimalMemoryOff();
      this->D3->SetRetainKdtree(1);
      exec->Update();
      if (this->FirstStep) {
        if (this->BSPcuts) this->BSPcuts->Delete();
        this->BSPcuts = this->D3->GetKdtree()->GetCuts();
        this->BSPcuts->Register(this);
        this->BSPcuts->PrintSelf(std::cout, 0 );
        this->FirstStep = 0;
      }
      //
      //
      //
      dob = exec->GetOutputData(0);
    }
#endif


From biddisco at cscs.ch  Mon Nov 20 13:53:40 2006
From: biddisco at cscs.ch (John Biddiscombe)
Date: Mon Nov 20 13:53:47 2006
Subject: [Paraview] Some D3 and MPI questions
In-Reply-To: <4561F626.4070109@cscs.ch>
References: <7137A9E1D1768C44BE7DF11D30FAB32303122AB2@ES21SNLNT.srn.sandia.gov>
	<4561F626.4070109@cscs.ch>
Message-ID: <4561F9B4.4090401@cscs.ch>

That's it - because it's multiblock - I'm only getting the Cuts from the 
last pass of the CompositeDataPipeline loop - so the planar slice is 
correct, but only for the final part.

Damn. How can I get the BSP cuts for all parts of the multiblock data

JB

> Ken,
>
>> I'm a little confused.  Once you call SetCuts on a k-d tree, the
>> distribution should be set and will never be recalculated.  Are you
>> calling D3->GetKdTree()->SetCuts()?
>>   
> On the animation I posted, I was not re-using the cuts, I was allowing
> the tree to be recomputed on each timestep.
>
> When I tried to re-use the cuts, as below - the first time the reader
> executes, we have this->FirstTime=true and the Cuts are saved, then
> reused on subsequent passes - but the first frame looks ok and the ones
> after look very dodgy.
>
> The data is Multiblock and the D3 filter accepts only Unstructured, so I
> pass the data through a multigroupscalar filter and force the pieces
> manually to trigger the copmposite data pipeline into looping for me and
> generating multiblock D3 output (it works very nicely).
> The first execution gives the "right" looking data, but after that it
> changes and looks less well balanced. I concluded that it was storing
> not just the cuts, but also some Cell IDs and since these were invalid
> onsubsequent time steps, the thing failed to generate the proper output.
> It does seem to work consistently after the second execution, ie it does
> not change as you correctly state, but it doesn't look so good either -
> and why does it change the second time. I'm checking to see if I've made
> a boo-boo somewhere, but I welcome help.
>
> cheers
>
> JB
>
>
> #ifdef USE_D3
>    if (this->updateNumPieces>1) {
>      //
>      // Before doing any D3 filter operation, set a barrier point to