From amr.maillists at gmail.com  Fri May  1 04:19:55 2009
From: amr.maillists at gmail.com (Amr Abdel Aziz)
Date: Fri, 1 May 2009 18:19:55 +1000
Subject: [Paraview] VTK ImageData File
Message-ID: <b4cbb0870905010119i2684aa7dlc21524f476573bfb@mail.gmail.com>

*Hi All,
I'm trying to convert an existing data file into a VTK image data format.
But I always have error :*

*ERROR: In
/Users/kitware/Berk/ParaView3/VTK/IO/vtkXMLStructuredDataReader.cxx, line 92
vtkXMLImageDataReader (0x1ebbcb40): ImageData element has no WholeExtent.*



<?xml version="1.0"?>
<VTKFile type="ImageData" version="0.1" byte_order="LittleEndian">
<ImageData WholeExtent="136.75 133.2 -1 1.575 -60000 -179546" Origin="135
0.275 -117712" Spacing="-0.025 0.025 -4122.29">
<Piece Extent="136.75 133.2 -1 1.575 -60000 -179546">
<PointData Scalars="Speed">
<DataArray Name="Value" type="float" NumberOfComponents="1" Format="ascii">
.........
</DataArray>
</PointData>
</Piece>
</ImageData>
</VTKFile>

*
Can anyone tell me what is wrong with that file?*
-------------- next part --------------
An HTML attachment was scrubbed...
URL: <http://www.paraview.org/pipermail/paraview/attachments/20090501/2684e4d5/attachment-0001.htm>

From alinm.elena at googlemail.com  Fri May  1 05:04:58 2009
From: alinm.elena at googlemail.com (Alin M Elena)
Date: Fri, 1 May 2009 10:04:58 +0100
Subject: [Paraview] paraview and silo
Message-ID: <200905011004.58760.alin.elena@ichec.ie>

Hi,


I try to compile paraview CVS with silo plugin on a linux 64 bit machine
opensuse 11.1 with MVAPICH2-0.9.8
 and gnu compilers.

However I get the following error (The same error I get with the 3.4.0 stable 
version, I have attached the CMakeCache.txt too)

[ 34%] Building CXX object 
Servers/Filters/CMakeFiles/vtkPVFilters.dir/vtkSiloReader.o                                                                                                  
cd /home/alin/ParaView3CVS/Servers/Filters && 
/usr/lib64/mpi/gcc/mvapich2/bin/mpicxx   -DvtkPVFilters_EXPORTS -
DVTK_PYTHON_BUILD -DMPICH_IGNORE_CXX_SEEK -Wno-deprecated -fPIC -
I/home/alin/ParaView3/Servers/Filters -I/home/alin/ParaView3CVS -
I/home/alin/ParaView3CVS/VTK/Utilities -I/home/alin/silo-4.7/include -
I/home/alin/ParaView3CVS/Servers/Filters -I/home/alin/ParaView3/Servers/Common 
-I/home/alin/ParaView3/Utilities/hdf5 -I/home/alin/ParaView3CVS/Utilities/hdf5 
-I/home/alin/ParaView3/VTK -I/home/alin/ParaView3CVS/VTK -
I/home/alin/ParaView3/VTK/Utilities -I/home/alin/ParaView3/VTK/Common -
I/home/alin/ParaView3CVS/VTK/Common -I/home/alin/ParaView3/VTK/Filtering -
I/home/alin/ParaView3CVS/VTK/Filtering -
I/home/alin/ParaView3/VTK/GenericFiltering -
I/home/alin/ParaView3CVS/VTK/GenericFiltering -I/home/alin/ParaView3/VTK/IO -
I/home/alin/ParaView3CVS/VTK/IO -I/home/alin/ParaView3/VTK/Imaging -
I/home/alin/ParaView3CVS/VTK/Imaging -I/home/alin/ParaView3/VTK/Rendering -
I/home/alin/ParaView3CVS/VTK/Rendering -I/home/alin/ParaView3/VTK/Parallel -
I/home/alin/ParaView3CVS/VTK/Parallel -I/home/alin/ParaView3/VTK/Graphics -
I/home/alin/ParaView3CVS/VTK/Graphics -I/home/alin/ParaView3/VTK/Hybrid -
I/home/alin/ParaView3CVS/VTK/Hybrid -I/home/alin/ParaView3/VTK/VolumeRendering 
-I/home/alin/ParaView3CVS/VTK/VolumeRendering -
I/home/alin/ParaView3/VTK/Widgets -I/home/alin/ParaView3CVS/VTK/Widgets -
I/home/alin/ParaView3/VTK/Infovis -I/home/alin/ParaView3CVS/VTK/Infovis -
I/home/alin/ParaView3/VTK/Views -I/home/alin/ParaView3CVS/VTK/Views -
I/home/alin/ParaView3/Utilities/Xdmf2/vtk -
I/home/alin/ParaView3CVS/Utilities/Xdmf2/vtk -
I/usr/lib64/mpi/gcc/mvapich2/include -
I/home/alin/ParaView3/Utilities/IceT/src/include -
I/home/alin/ParaView3CVS/Utilities/IceT/src/include -
I/home/alin/ParaView3/Utilities/VTKClientServer -
I/home/alin/ParaView3CVS/Utilities/VTKClientServer   -o 
CMakeFiles/vtkPVFilters.dir/vtkSiloReader.o -c 
/home/alin/ParaView3/Servers/Filters/vtkSiloReader.cxx                                               
/home/alin/ParaView3/Servers/Filters/vtkSiloReader.cxx: In member function 
?vtkDataSet* vtkSiloReader::CreateRectilinearMesh(DBquadmesh*)?:                                             
/home/alin/ParaView3/Servers/Filters/vtkSiloReader.cxx:1732: error: pointer of 
type ?void *? used in arithmetic                                                                         
/home/alin/ParaView3/Servers/Filters/vtkSiloReader.cxx:1732: error: ?void*? is 
not a pointer-to-object type                                                                             
/home/alin/ParaView3/Servers/Filters/vtkSiloReader.cxx: In member function 
?vtkDataSet* vtkSiloReader::GetCurve(DBfile*, const char*)?:                                                 
/home/alin/ParaView3/Servers/Filters/vtkSiloReader.cxx:2008: error: pointer of 
type ?void *? used in arithmetic
/home/alin/ParaView3/Servers/Filters/vtkSiloReader.cxx:2008: error: ?void*? is 
not a pointer-to-object type
/home/alin/ParaView3/Servers/Filters/vtkSiloReader.cxx:2008: error: pointer of 
type ?void *? used in arithmetic
/home/alin/ParaView3/Servers/Filters/vtkSiloReader.cxx:2008: error: ?void*? is 
not a pointer-to-object type
/home/alin/ParaView3/Servers/Filters/vtkSiloReader.cxx: In member function 
?vtkDataArray* vtkSiloReader::GetQuadVectorVar(DBquadvar*)?:
/home/alin/ParaView3/Servers/Filters/vtkSiloReader.cxx:2205: error: pointer of 
type ?void *? used in arithmetic
/home/alin/ParaView3/Servers/Filters/vtkSiloReader.cxx:2205: error: ?void*? is 
not a pointer-to-object type
/home/alin/ParaView3/Servers/Filters/vtkSiloReader.cxx:2206: error: pointer of 
type ?void *? used in arithmetic
/home/alin/ParaView3/Servers/Filters/vtkSiloReader.cxx:2206: error: ?void*? is 
not a pointer-to-object type
/home/alin/ParaView3/Servers/Filters/vtkSiloReader.cxx:2206: error: pointer of 
type ?void *? used in arithmetic
/home/alin/ParaView3/Servers/Filters/vtkSiloReader.cxx:2206: error: ?void*? is 
not a pointer-to-object type
/home/alin/ParaView3/Servers/Filters/vtkSiloReader.cxx: In member function 
?vtkDataSet* vtkSiloReader::GetPointMesh(DBfile*, const char*)?:
/home/alin/ParaView3/Servers/Filters/vtkSiloReader.cxx:2256: error: pointer of 
type ?void *? used in arithmetic
/home/alin/ParaView3/Servers/Filters/vtkSiloReader.cxx:2256: error: ?void*? is 
not a pointer-to-object type
/home/alin/ParaView3/Servers/Filters/vtkSiloReader.cxx: In member function 
?vtkDataArray* vtkSiloReader::GetPointVectorVar(DBmeshvar*)?:
/home/alin/ParaView3/Servers/Filters/vtkSiloReader.cxx:2306: error: pointer of 
type ?void *? used in arithmetic
/home/alin/ParaView3/Servers/Filters/vtkSiloReader.cxx:2306: error: ?void*? is 
not a pointer-to-object type
/home/alin/ParaView3/Servers/Filters/vtkSiloReader.cxx:2307: error: pointer of 
type ?void *? used in arithmetic
/home/alin/ParaView3/Servers/Filters/vtkSiloReader.cxx:2307: error: ?void*? is 
not a pointer-to-object type
/home/alin/ParaView3/Servers/Filters/vtkSiloReader.cxx:2307: error: pointer of 
type ?void *? used in arithmetic
/home/alin/ParaView3/Servers/Filters/vtkSiloReader.cxx:2307: error: ?void*? is 
not a pointer-to-object type
/home/alin/ParaView3/Servers/Filters/vtkSiloReader.cxx: In member function 
?vtkDataArray* vtkSiloReader::GetUcdVectorVar(DBucdvar*)?:
/home/alin/ParaView3/Servers/Filters/vtkSiloReader.cxx:2482: error: invalid 
conversion from ?void*? to ?float*?
/home/alin/ParaView3/Servers/Filters/vtkSiloReader.cxx:2483: error: invalid 
conversion from ?void*? to ?float*?
/home/alin/ParaView3/Servers/Filters/vtkSiloReader.cxx:2485: error: invalid 
conversion from ?void*? to ?float*?
/home/alin/ParaView3/Servers/Filters/vtkSiloReader.cxx: In member function 
?vtkDataSet* vtkSiloReader::GetUnstructuredMesh(DBfile*, const char*)?:
/home/alin/ParaView3/Servers/Filters/vtkSiloReader.cxx:2577: error: invalid 
conversion from ?void*? to ?const float*?
/home/alin/ParaView3/Servers/Filters/vtkSiloReader.cxx:2578: error: invalid 
conversion from ?void*? to ?const float*?
/home/alin/ParaView3/Servers/Filters/vtkSiloReader.cxx:2581: error: invalid 
conversion from ?void*? to ?const float*?
make[2]: *** [Servers/Filters/CMakeFiles/vtkPVFilters.dir/vtkSiloReader.o] 
Error 1
make[2]: Leaving directory `/home/alin/ParaView3CVS'
make[1]: *** [Servers/Filters/CMakeFiles/vtkPVFilters.dir/all] Error 2
make[1]: Leaving directory `/home/alin/ParaView3CVS'
make: *** [all] Error 2

Alin

-- 
 ______________________________________________________________________
 "If the Universities will not study useless subjects, who will?"
                             G. F. FitzGerald, Nature, 45/46, 392 (1892)
 ______________________________________________________________________
 Mr  Alin M ELENA
 Irish Centre for High-End Computing -- www.ichec.ie
 The Design Tower, Trinity Technology & Enterprise Campus
 Grand Canal Quay,  Dublin 2, Ireland
 Tel:   +353 (0) 1 5241608 ext 29
 Fax: +353 (0) 1 7645845
 http://alin.elenaworld.net
 alin.elena at ichec.ie
 alinm.elena at gmail.com
 ______________________________________________________________________

-------------- next part --------------
An HTML attachment was scrubbed...
URL: <http://www.paraview.org/pipermail/paraview/attachments/20090501/7128f9b3/attachment-0001.htm>
-------------- next part --------------
A non-text attachment was scrubbed...
Name: CMakeCache.txt.zip
Type: application/zip
Size: 21019 bytes
Desc: not available
URL: <http://www.paraview.org/pipermail/paraview/attachments/20090501/7128f9b3/attachment-0001.zip>

From berk.geveci at kitware.com  Fri May  1 09:36:02 2009
From: berk.geveci at kitware.com (Berk Geveci)
Date: Fri, 1 May 2009 09:36:02 -0400
Subject: [Paraview] Error when opening openFOAM case
In-Reply-To: <20090426.004227.267058561.oshima@eng.niigata-u.ac.jp>
References: <e6d1c8ca0904240831x229b8057t1a9de6d5137e6004@mail.gmail.com>
	<E05ABC9A7FBFB942B70D7533AF5BE68D04D2A170@augexmsg001.euro.corp.dir>
	<20090426.004227.267058561.oshima@eng.niigata-u.ac.jp>
Message-ID: <45d654b0905010636i4dfe691kc6dbc9887a24ed19@mail.gmail.com>

We are still waiting on answers but I think that we will drop VS6
support. We didn't look into other compilers yet. Once the dashboard
is clean, let's try this again. It would be a good test to see which
compilers are hopeless and which ones need some work.

-berk

2009/4/25 Takuya OSHIMA <oshima at eng.niigata-u.ac.jp>:
> Hi Mark,
>
> Thanks for the mention about the reader. In fact, it was once checked
> into the CVS late last year, but reverted back to the original version
> due to too many dashboard errors especially on older and minor
> platforms (VS6/SunOS/HP-UX/AIX).
>
> Perhaps I can make a one-time effort of getting rid of all the
> reported errors provided that the VTK developers are collaborative
> (except an ICE generated by only one of the VS6 dashboard machines for
> which I totally have no idea about a solution unless I have direct
> access to that particular machine). But I don't think I am so diligent
> and patient as to keep asking the VTK developers for repetitive
> dashboard trials and errors each time I make improvements or bugfixes
> in order to maintain the reader ongoing.
>
> However as a bright side, I am aware of the recent "Can we drop Visual
> Studio 6 support?" discussion held on the vtk-developers list. During
> the discussion there were not only VS6 but also some other outdated
> platforms named as retiring candidates. If it materializes, the
> contribution could be easier since most of the remaining (similar)
> platforms listed on the dashboard are accessible around me and thus I
> should be able to prepare on my part.
>
> Regards,
> Takuya
>
> Takuya OSHIMA, Ph.D.
> Faculty of Engineering, Niigata University
> 8050 Ikarashi-Ninocho, Nishi-ku, Niigata, 950-2181, JAPAN
>
> From: "Olesen, Mark" <Mark.Olesen at emcontechnologies.com>
> Subject: Re: [Paraview] Error when opening openFOAM case
> Date: Fri, 24 Apr 2009 18:20:21 +0200
>
>> > I've been having trouble for weeks getting ParaView to work. I've
>> > finally gotten a build that loads and seems to work well until I try
>> > to load an openFOAM casefile. In ParaView, I open the file
>> > (casename.foam) and then it asks for a reader because the program
>> > doesn't know how to read the file and then it crashes with this
>> > message in the terminal.
>> >
>> > /Volumes/openFOAM/ThirdParty/ParaView3.5 ->
>> > bin/paraview.app/Contents/MacOS/paraview
>> > terminate called after throwing an instance of 'std::length_error'
>> > ? what(): ?basic_string::_S_create
>> > Abort trap
>>
>>
>> This error is quite familiar (even on Linux). You have a few possible
>> courses of action:
>>
>> - use foamToEnsight* to convert to EnSight formats
>>
>> - use the library plugin supplied with OpenFOAM (loads files with
>> ".OpenFOAM" extension)
>>
>> - use Takuya OSHIMA's updated version of the OpenFOAM reader. Actually,
>> can someone explain why this isn't included in VTK by default? It seems
>> to work fairly well and Takuya is quite diligent about providing fixes
>> and improvements.
>>
>> Here's some further information:
>>
>> http://openfoamwiki.net/index.php/Contrib_Parallelized_Native_OpenFOAM_R
>> eader_for_ParaView
>>
>>
>> /mark
>>
>> This e-mail message and any attachments may contain
>> legally privileged, confidential or proprietary Information,
>> or information otherwise protected by law of EMCON
>> Technologies, its affiliates, or third parties. This notice
>> serves as marking of its "Confidential" status as defined
>> in any confidentiality agreements concerning the sender
>> and recipient. If you are not the intended recipient(s),
>> or the employee or agent responsible for delivery of this
>> message to the intended recipient(s), you are hereby
>> notified that any dissemination, distribution or copying
>> of this e-mail message is strictly prohibited.
>> If you have received this message in error, please
>> immediately notify the sender and delete this e-mail
>> message from your computer.
>>
>> _______________________________________________
>> Powered by www.kitware.com
>>
>> Visit other Kitware open-source projects at http://www.kitware.com/opensource/opensource.html
>>
>> Please keep messages on-topic and check the ParaView Wiki at: http://paraview.org/Wiki/ParaView
>>
>> Follow this link to subscribe/unsubscribe:
>> http://www.paraview.org/mailman/listinfo/paraview
> _______________________________________________
> Powered by www.kitware.com
>
> Visit other Kitware open-source projects at http://www.kitware.com/opensource/opensource.html
>
> Please keep messages on-topic and check the ParaView Wiki at: http://paraview.org/Wiki/ParaView
>
> Follow this link to subscribe/unsubscribe:
> http://www.paraview.org/mailman/listinfo/paraview
>

From berk.geveci at kitware.com  Fri May  1 09:39:46 2009
From: berk.geveci at kitware.com (Berk Geveci)
Date: Fri, 1 May 2009 09:39:46 -0400
Subject: [Paraview] paraview and silo
In-Reply-To: <200905011004.58760.alin.elena@ichec.ie>
References: <200905011004.58760.alin.elena@ichec.ie>
Message-ID: <45d654b0905010639g1447cc36ve706f71e8d023cf3@mail.gmail.com>

I'd recommend turning of the Silo reader. We will remove it and
replace it with another reader in the version.

-berk

On Fri, May 1, 2009 at 5:04 AM, Alin M Elena <alinm.elena at googlemail.com> wrote:
> Hi,
>
>
> I try to compile paraview CVS with silo plugin on a linux 64 bit machine
> opensuse 11.1 with MVAPICH2-0.9.8
> and gnu compilers.
>
> However I get the following error (The same error I get with the 3.4.0
> stable
> version, I have attached the CMakeCache.txt too)
>
> [ 34%] Building CXX object
> Servers/Filters/CMakeFiles/vtkPVFilters.dir/vtkSiloReader.o
> cd /home/alin/ParaView3CVS/Servers/Filters &&
> /usr/lib64/mpi/gcc/mvapich2/bin/mpicxx -DvtkPVFilters_EXPORTS -
> DVTK_PYTHON_BUILD -DMPICH_IGNORE_CXX_SEEK -Wno-deprecated -fPIC -
> I/home/alin/ParaView3/Servers/Filters -I/home/alin/ParaView3CVS -
> I/home/alin/ParaView3CVS/VTK/Utilities -I/home/alin/silo-4.7/include -
> I/home/alin/ParaView3CVS/Servers/Filters
> -I/home/alin/ParaView3/Servers/Common
> -I/home/alin/ParaView3/Utilities/hdf5
> -I/home/alin/ParaView3CVS/Utilities/hdf5
> -I/home/alin/ParaView3/VTK -I/home/alin/ParaView3CVS/VTK -
> I/home/alin/ParaView3/VTK/Utilities -I/home/alin/ParaView3/VTK/Common -
> I/home/alin/ParaView3CVS/VTK/Common -I/home/alin/ParaView3/VTK/Filtering -
> I/home/alin/ParaView3CVS/VTK/Filtering -
> I/home/alin/ParaView3/VTK/GenericFiltering -
> I/home/alin/ParaView3CVS/VTK/GenericFiltering -I/home/alin/ParaView3/VTK/IO
> -
> I/home/alin/ParaView3CVS/VTK/IO -I/home/alin/ParaView3/VTK/Imaging -
> I/home/alin/ParaView3CVS/VTK/Imaging -I/home/alin/ParaView3/VTK/Rendering -
> I/home/alin/ParaView3CVS/VTK/Rendering -I/home/alin/ParaView3/VTK/Parallel -
> I/home/alin/ParaView3CVS/VTK/Parallel -I/home/alin/ParaView3/VTK/Graphics -
> I/home/alin/ParaView3CVS/VTK/Graphics -I/home/alin/ParaView3/VTK/Hybrid -
> I/home/alin/ParaView3CVS/VTK/Hybrid
> -I/home/alin/ParaView3/VTK/VolumeRendering
> -I/home/alin/ParaView3CVS/VTK/VolumeRendering -
> I/home/alin/ParaView3/VTK/Widgets -I/home/alin/ParaView3CVS/VTK/Widgets -
> I/home/alin/ParaView3/VTK/Infovis -I/home/alin/ParaView3CVS/VTK/Infovis -
> I/home/alin/ParaView3/VTK/Views -I/home/alin/ParaView3CVS/VTK/Views -
> I/home/alin/ParaView3/Utilities/Xdmf2/vtk -
> I/home/alin/ParaView3CVS/Utilities/Xdmf2/vtk -
> I/usr/lib64/mpi/gcc/mvapich2/include -
> I/home/alin/ParaView3/Utilities/IceT/src/include -
> I/home/alin/ParaView3CVS/Utilities/IceT/src/include -
> I/home/alin/ParaView3/Utilities/VTKClientServer -
> I/home/alin/ParaView3CVS/Utilities/VTKClientServer -o
> CMakeFiles/vtkPVFilters.dir/vtkSiloReader.o -c
> /home/alin/ParaView3/Servers/Filters/vtkSiloReader.cxx
> /home/alin/ParaView3/Servers/Filters/vtkSiloReader.cxx: In member function
> ?vtkDataSet* vtkSiloReader::CreateRectilinearMesh(DBquadmesh*)?:
> /home/alin/ParaView3/Servers/Filters/vtkSiloReader.cxx:1732: error: pointer
> of
> type ?void *? used in arithmetic
> /home/alin/ParaView3/Servers/Filters/vtkSiloReader.cxx:1732: error: ?void*?
> is
> not a pointer-to-object type
> /home/alin/ParaView3/Servers/Filters/vtkSiloReader.cxx: In member function
> ?vtkDataSet* vtkSiloReader::GetCurve(DBfile*, const char*)?:
> /home/alin/ParaView3/Servers/Filters/vtkSiloReader.cxx:2008: error: pointer
> of
> type ?void *? used in arithmetic
> /home/alin/ParaView3/Servers/Filters/vtkSiloReader.cxx:2008: error: ?void*?
> is
> not a pointer-to-object type
> /home/alin/ParaView3/Servers/Filters/vtkSiloReader.cxx:2008: error: pointer
> of
> type ?void *? used in arithmetic
> /home/alin/ParaView3/Servers/Filters/vtkSiloReader.cxx:2008: error: ?void*?
> is
> not a pointer-to-object type
> /home/alin/ParaView3/Servers/Filters/vtkSiloReader.cxx: In member function
> ?vtkDataArray* vtkSiloReader::GetQuadVectorVar(DBquadvar*)?:
> /home/alin/ParaView3/Servers/Filters/vtkSiloReader.cxx:2205: error: pointer
> of
> type ?void *? used in arithmetic
> /home/alin/ParaView3/Servers/Filters/vtkSiloReader.cxx:2205: error: ?void*?
> is
> not a pointer-to-object type
> /home/alin/ParaView3/Servers/Filters/vtkSiloReader.cxx:2206: error: pointer
> of
> type ?void *? used in arithmetic
> /home/alin/ParaView3/Servers/Filters/vtkSiloReader.cxx:2206: error: ?void*?
> is
> not a pointer-to-object type
> /home/alin/ParaView3/Servers/Filters/vtkSiloReader.cxx:2206: error: pointer
> of
> type ?void *? used in arithmetic
> /home/alin/ParaView3/Servers/Filters/vtkSiloReader.cxx:2206: error: ?void*?
> is
> not a pointer-to-object type
> /home/alin/ParaView3/Servers/Filters/vtkSiloReader.cxx: In member function
> ?vtkDataSet* vtkSiloReader::GetPointMesh(DBfile*, const char*)?:
> /home/alin/ParaView3/Servers/Filters/vtkSiloReader.cxx:2256: error: pointer
> of
> type ?void *? used in arithmetic
> /home/alin/ParaView3/Servers/Filters/vtkSiloReader.cxx:2256: error: ?void*?
> is
> not a pointer-to-object type
> /home/alin/ParaView3/Servers/Filters/vtkSiloReader.cxx: In member function
> ?vtkDataArray* vtkSiloReader::GetPointVectorVar(DBmeshvar*)?:
> /home/alin/ParaView3/Servers/Filters/vtkSiloReader.cxx:2306: error: pointer
> of
> type ?void *? used in arithmetic
> /home/alin/ParaView3/Servers/Filters/vtkSiloReader.cxx:2306: error: ?void*?
> is
> not a pointer-to-object type
> /home/alin/ParaView3/Servers/Filters/vtkSiloReader.cxx:2307: error: pointer
> of
> type ?void *? used in arithmetic
> /home/alin/ParaView3/Servers/Filters/vtkSiloReader.cxx:2307: error: ?void*?
> is
> not a pointer-to-object type
> /home/alin/ParaView3/Servers/Filters/vtkSiloReader.cxx:2307: error: pointer
> of
> type ?void *? used in arithmetic
> /home/alin/ParaView3/Servers/Filters/vtkSiloReader.cxx:2307: error: ?void*?
> is
> not a pointer-to-object type
> /home/alin/ParaView3/Servers/Filters/vtkSiloReader.cxx: In member function
> ?vtkDataArray* vtkSiloReader::GetUcdVectorVar(DBucdvar*)?:
> /home/alin/ParaView3/Servers/Filters/vtkSiloReader.cxx:2482: error: invalid
> conversion from ?void*? to ?float*?
> /home/alin/ParaView3/Servers/Filters/vtkSiloReader.cxx:2483: error: invalid
> conversion from ?void*? to ?float*?
> /home/alin/ParaView3/Servers/Filters/vtkSiloReader.cxx:2485: error: invalid
> conversion from ?void*? to ?float*?
> /home/alin/ParaView3/Servers/Filters/vtkSiloReader.cxx: In member function
> ?vtkDataSet* vtkSiloReader::GetUnstructuredMesh(DBfile*, const char*)?:
> /home/alin/ParaView3/Servers/Filters/vtkSiloReader.cxx:2577: error: invalid
> conversion from ?void*? to ?const float*?
> /home/alin/ParaView3/Servers/Filters/vtkSiloReader.cxx:2578: error: invalid
> conversion from ?void*? to ?const float*?
> /home/alin/ParaView3/Servers/Filters/vtkSiloReader.cxx:2581: error: invalid
> conversion from ?void*? to ?const float*?
> make[2]: *** [Servers/Filters/CMakeFiles/vtkPVFilters.dir/vtkSiloReader.o]
> Error 1
> make[2]: Leaving directory `/home/alin/ParaView3CVS'
> make[1]: *** [Servers/Filters/CMakeFiles/vtkPVFilters.dir/all] Error 2
> make[1]: Leaving directory `/home/alin/ParaView3CVS'
> make: *** [all] Error 2
>
> Alin
>
> --
> ______________________________________________________________________
> "If the Universities will not study useless subjects, who will?"
> G. F. FitzGerald, Nature, 45/46, 392 (1892)
> ______________________________________________________________________
> Mr Alin M ELENA
> Irish Centre for High-End Computing -- www.ichec.ie
> The Design Tower, Trinity Technology & Enterprise Campus
> Grand Canal Quay, Dublin 2, Ireland
> Tel: +353 (0) 1 5241608 ext 29
> Fax: +353 (0) 1 7645845
> http://alin.elenaworld.net
> alin.elena at ichec.ie
> alinm.elena at gmail.com
> ______________________________________________________________________
>
>
> _______________________________________________
> Powered by www.kitware.com
>
> Visit other Kitware open-source projects at
> http://www.kitware.com/opensource/opensource.html
>
> Please keep messages on-topic and check the ParaView Wiki at:
> http://paraview.org/Wiki/ParaView
>
> Follow this link to subscribe/unsubscribe:
> http://www.paraview.org/mailman/listinfo/paraview
>
>

From angel at arl.army.mil  Fri May  1 10:27:25 2009
From: angel at arl.army.mil (Rick Angelini)
Date: Fri, 01 May 2009 10:27:25 -0400
Subject: [Paraview] Exodus weirdness
In-Reply-To: <C61F6A7C.8B09%kmorel@sandia.gov>
References: <C61F6A7C.8B09%kmorel@sandia.gov>
Message-ID: <49FB06CD.80906@arl.army.mil>

It's the boundaries from the original simulation. However, running 
through the D3 filter and then doing a cell2point seems to clean up the 
boundary edges.

Thanks


Moreland, Kenneth wrote:
> I don?t recall seeing anything quite like that before. Are these 
> boundaries in question those in the original simulation (noted by the 
> file number) or the processes in your visualization (which can be 
> annotated with the Process Id Scalars filter)? Does running the data 
> through D3 help?
>
> -Ken
>
>
> On 4/30/09 1:30 PM, "Rick Angelini" <angel at arl.army.mil> wrote:
>
>     I am working with one of my customers viewing an Exodus dataset
>     generated by Alegra(?) using 256p. The dataset loads fine, but seems
>     to have an issue at the processor boundaries. When viewing the
>     dataset using something like a clip plane or isosurface, the data
>     seems
>     to be "slipped" (or offset) at each processor boundary - that is,
>     there
>     appears to be a hard edge at each processor boundary. Unfortunately,
>     I'm not able to post an image that represents the problem.
>
>     I'm not familiar with the Exodus data format, but it looks like it
>     could
>     be an issue associate with ghost cells. Either there are no ghost
>     cells at the processor boundary layer, or they're possibly being
>     mismanaged? Curiously enough, this is the first time we've noticed
>     this problem after processing quite a few Exodus datasets. We're
>     using the latest production version of Paraview (3.4) and we've also
>     been able to duplicate the issue with other visualization tools, so we
>     think this is a problem with this particular Exodus dataset, if
>     not the
>     Exodus format in general.
>
>     Any ideas?
>
>
>     _______________________________________________
>     Powered by www.kitware.com
>
>     Visit other Kitware open-source projects at
>     http://www.kitware.com/opensource/opensource.html
>
>     Please keep messages on-topic and check the ParaView Wiki at:
>     http://paraview.org/Wiki/ParaView
>
>     Follow this link to subscribe/unsubscribe:
>     http://www.paraview.org/mailman/listinfo/paraview
>
>
>
>
> **** Kenneth Moreland
> *** Sandia National Laboratories
> ***********
> *** *** *** email: kmorel at sandia.gov
> ** *** ** phone: (505) 844-8919
> *** web: http://www.cs.unm.edu/~kmorel <http://www.cs.unm.edu/%7Ekmorel>
>

From alinm.elena at googlemail.com  Fri May  1 10:29:43 2009
From: alinm.elena at googlemail.com (Alin M Elena)
Date: Fri, 1 May 2009 15:29:43 +0100
Subject: [Paraview] paraview and silo + cosmo
In-Reply-To: <45d654b0905010639g1447cc36ve706f71e8d023cf3@mail.gmail.com>
References: <200905011004.58760.alin.elena@ichec.ie>
	<45d654b0905010639g1447cc36ve706f71e8d023cf3@mail.gmail.com>
Message-ID: <200905011529.43861.alin.elena@ichec.ie>

Hi Berk,

Thank you very much for you answer.

It seems that cosmo, pvblot filters fail too for cvs
The cosmo should be something very simple I may have a look into it if I get 
some time.

Anyhow do you have any ET for the silo, as I need the plugin working for one 
of our users. (Try to move some from Visit to Paraview).

Otherwise it compiles fine.
Once installed the binary will complain about missing libs 
 paraview
paraview: error while loading shared libraries: libpqComponents.so: cannot 
open shared object file: No such file or directory
More than sure this has to do with 
-- Removed runtime path from "/usr/local/lib/paraview-3.5/libpqCore.so"                                                                                                                 
-- Installing: /usr/local/lib/paraview-3.5/libpqComponents.so                                                                                                                           
-- Removed runtime path from "/usr/local/lib/paraview-3.5/libpqComponents.so"                                                                                                           
-- Installing: /usr/local/bin/pqClientDocFinder.txt                                                                                                                                     
-- Installing: /usr/local/bin/paraview                                                                                                                                                  
-- Removed runtime path from "/usr/local/bin/paraview"            


Why is there no uninstall target in the CMakeLists.txt of paravie?


 As a side, I use qt4.5.1   Why is the prefered version for qt still 4.3?

regards,
Alin



[ 97%] Building CXX object 
Plugins/CosmoFilters/CMakeFiles/CosmoFiltersSMPlugin.dir/CosmoFiltersSMPluginPluginImplementation.o
[ 97%] Building CXX object 
Plugins/CosmoFilters/CMakeFiles/CosmoFiltersSMPlugin.dir/qrc_CosmoFiltersSMPlugin.o
[ 97%] Building CXX object 
Plugins/CosmoFilters/CMakeFiles/CosmoFiltersSMPlugin.dir/vtkCosmoHaloCountFilter.o
[ 97%] Building CXX object 
Plugins/CosmoFilters/CMakeFiles/CosmoFiltersSMPlugin.dir/vtkCosmoHaloClassFilter.o
[ 97%] Building CXX object 
Plugins/CosmoFilters/CMakeFiles/CosmoFiltersSMPlugin.dir/vtkCosmoHaloFinder.o
/home/alin/ParaView3/Plugins/CosmoFilters/vtkCosmoHaloFinder.cxx: In member 
function ?void vtkCosmoHaloFinder::Reorder(long long int*, long long int*, 
int)?:
/home/alin/ParaView3/Plugins/CosmoFilters/vtkCosmoHaloFinder.cxx:495: error: 
?nth_element? is not a member of ?std?
make[2]: *** 
[Plugins/CosmoFilters/CMakeFiles/CosmoFiltersSMPlugin.dir/vtkCosmoHaloFinder.o] 
Error 1
make[1]: *** [Plugins/CosmoFilters/CMakeFiles/CosmoFiltersSMPlugin.dir/all] 
Error 2
make: *** [all] Error 2





[ 99%] Building CXX object Plugins/pvblot/CMakeFiles/pvblot.dir/pqBlotDialog.o                                                                                                          
In file included from /home/alin/ParaView3/Plugins/pvblot/pqBlotDialog.cxx:29:
/home/alin/ParaView3CVS/Plugins/pvblot/ui_pqBlotDialog.h:24:25: error: 
pqblotShell.h: No such file or directory
In file included from /home/alin/ParaView3/Plugins/pvblot/pqBlotDialog.cxx:29:
/home/alin/ParaView3CVS/Plugins/pvblot/ui_pqBlotDialog.h: In member function 
?void Ui_pqBlotDialog::setupUi(QDialog*)?:
/home/alin/ParaView3CVS/Plugins/pvblot/ui_pqBlotDialog.h:55: error: invalid 
use of incomplete type ?struct pqBlotShell?
/home/alin/ParaView3/Plugins/pvblot/pqBlotDialog.h:27: error: forward 
declaration of ?struct pqBlotShell?
/home/alin/ParaView3CVS/Plugins/pvblot/ui_pqBlotDialog.h:56: error: invalid 
use of incomplete type ?struct pqBlotShell?