From robcoorens at gmail.com  Sun Aug  2 11:30:57 2015
From: robcoorens at gmail.com (Rob Coorens)
Date: Sun, 2 Aug 2015 17:30:57 +0200
Subject: [Paraview] scalars and vectors
Message-ID: <CAHV15M_zHkwcw2TvsW2ut6OPeEY5n25s8gm28WVK9ujr+sHpgg@mail.gmail.com>

Dear All,

I am new to paraview and cant work out the following(which is essential to
my thesis project). I have two datasets, one with vectors and one with
scalars. I want to create glyphs that are scaled and oriented by the vector
data and coloured by the scalar data.
I grouped my datasets and then in glyphs  i set my scale mode to vectors
and colouring to scalars. However i think i also see zero vectors from my
scalar dataset created by paraview. How can i remove these. Because they
interfere with my visualization. Any help would be great!!

kindest Regards

Rob
-------------- next part --------------
An HTML attachment was scrubbed...
URL: <http://public.kitware.com/pipermail/paraview/attachments/20150802/20ba4abc/attachment.html>

From sergi.mateo.bellido at gmail.com  Sun Aug  2 12:41:13 2015
From: sergi.mateo.bellido at gmail.com (Sergi Mateo Bellido)
Date: Sun, 02 Aug 2015 18:41:13 +0200
Subject: [Paraview] [BUG] segfault playing a simulation
In-Reply-To: <55B20445.7060809@gmail.com>
References: <55895735.2030202@gmail.com>	<CAB5Fpx4BDY+JDKBbA5Lt02Yt1RLaaZY6TPW9azpZsGf-aWTD7Q@mail.gmail.com>	<559381DE.5030504@gmail.com>	<CAB5Fpx6H7dY-j86vut03OuVr+7smd+1YwGqL2e771tRE0xdkxw@mail.gmail.com>	<559422EF.3070304@gmail.com>	<CAB5Fpx7AdTrtGAsq9OjoW36=-dWFDzUAGrtCF+fqqa4hLenoDg@mail.gmail.com>	<55A0E2AE.5050101@gmail.com>
 <CAB5Fpx7-YAJznWJKT6gk4fAV9_GM_GX2E=0Q9_2YSW4Wt5NO8A@mail.gmail.com>
 <55A9056C.2000101@gmail.com> <55A90F76.8000804@gmail.com>
 <55B20445.7060809@gmail.com>
Message-ID: <55BE4829.5030209@gmail.com>

Hi,

After a few hours debugging ParaView's code I think that I finally found 
the bug! :)

The problem is that the meaning of the piece extent changes depending on 
if the piece has the whole dimensions or only a portion of them. For 
example, imagine that we have the following *.pvti file:

<VTKFile type="PImageData"  ... compressor="vtkZLibDataCompressor">
   <PImageData WholeExtent="0 200 0 200 0 200" ...>
     <PPointData>
       <PDataArray type="Float32" ..."/>
     </PPointData>
     <Piece Extent="0 200 0 200 0 101" Source="raw_binary_0_0.vti"/>
     <Piece Extent="0 200 0 200 101 200" Source="raw_binary_0_1.vti"/>
   </PImageData>
</VTKFile>

In this case, the dimensions of the pieces are:
   1st piece -> [0..200], [0..200], [0..101)
   2nd piece -> [0..200], [0..200], [101..200]

Note that the last dimension range of the 1st piece doesn't include the 
101 value which is included in the 2nd piece.

The issue here is that the code is not taking into account this when 
it's computing the dimensions of the current piece. In file 
VTK/IO/XML/vtkXMLPStructuredDataReader.cxx:155 we have the next call to 
'ComputePointDimensions' function:

  this->ComputePointDimensions(this->SubExtent, this->SubPointDimensions);

I printed the values of 'this->SubExtent' and they were the same values 
specified in the Piece Extent field:

(gdb) p SubExtent
$1 = {0, 200, 0, 200, 0, 101}

For these values, the 'ComputePointDimensions' function, which is 
defined in VTK/IO/XML/vtkXMLReader.cxx:916, computed the next dimensions:

(gdb) p this->SubPointDimensions
$2 = {201, 201, 102}

How these values are computed is very simple: upper_bound - lower_bound 
+ 1. Note that the value of the third dimension is wrong: it should be 
101 instead of 102.

Finally, the segfault is produced in the 'CopySubExtent' function, which 
is defined in VTK/IO/XML/vtkXMLPStructuredDataReader.cxx:342, because 
SubPointDimensions information is used to copy the regions and we are 
doing an extra copy (loop defined in 371 line).

Could you confirm me this bug?

Best regards,

Sergi Mateo

PS1: Source references are related to the last version of ParaView's 
source published in your webpage: 
http://www.paraview.org/paraview-downloads/download.php?submit=Download&version=v4.3&type=source&os=all&downloadFile=ParaView-v4.3.1-source.tar.gz

PS2: You can reproduce this bug using one of the examples that I sent 
you in my previous emails.

On 07/24/2015 11:24 AM, Sergi Mateo Bellido wrote:
> Hi Cory,
>
> I have been doing some experiments with the encoding formats but I've 
> not progressed much.
>
> The elements of my mesh are floats and the mesh dimensions are 
> 201x201x201 (X,Y,Z). I executed all the experiments with 2 MPI 
> processes and the data domain was manually partionated by the Z axis, 
> i.e. each process computes half of the cube.
>
> The program basically writes, at each position of the mesh, the 
> identifier of the MPI process that computed that position (mpi rank). 
> In our case, this means that half of the cube has a '0' whereas the 
> other portion has a '1'.
>
> Attached to this email you will  a tarball with 3 outputs, one for 
> each different encoding (ASCII, zipped binary, raw binary). The size 
> of the mesh is 201x201x201 and the only difference among the 
> executions is the encoding format.
>
> I hope you could give me some light.
>
> Thanks!
>
> Sergi
>
> On 07/17/2015 04:21 PM, Sergi Mateo Bellido wrote:
>> Hi again,
>>
>> I've just tried storing the data as a binary and It  crashes. In this 
>> case we are not using the offset field either.
>>
>> May the problem be related to the data compression?
>>
>> Best,
>> Sergi
>>
>> On 07/17/2015 03:38 PM, Sergi Mateo Bellido wrote:
>>> Hi Cory,
>>>
>>> Your intuition was right: the problem is related in some way with 
>>> the offset. I've changed the DataMote to ASCII and everything worked 
>>> :)  Note that in this mode the offset field is not used, instead of 
>>> that VTK generates a DataArray.
>>>
>>> I would like to know how the offset is computed since I can't find 
>>> any relation between the  offset value and my data.
>>>
>>> Thanks!
>>>
>>> Sergi
>>>
>>> On 07/13/2015 03:51 AM, Cory Quammen wrote:
>>>> Sergi,
>>>>
>>>> Your VTI file extents should only describe the region of the whole 
>>>> image they occupy, so you are on the right track. In situations 
>>>> like these where it isn't obvious what is wrong, I tend to start 
>>>> from the beginning with a very small example and build up from 
>>>> there. For example, you could start with a small image - say 2 x 4 
>>>> pixels (2D) split into two pieces. Start with one data array for 
>>>> this example and make sure it works - use ASCII encoding so that 
>>>> you know for sure what is in the XML file and then switch to raw 
>>>> binary, then zipped binary. Then add a second data array. When you 
>>>> are confident that works, change the example to four pieces, then 
>>>> make the image 3D and so on.
>>>>
>>>> It can take a while to do this, but you'll come out really 
>>>> understanding the file format and will probably figure out what you 
>>>> had wrong in the first place.
>>>>
>>>> Thanks,
>>>> Cory
>>>>
>>>> On Sat, Jul 11, 2015 at 5:32 AM, Sergi Mateo Bellido 
>>>> <sergi.mateo.bellido at gmail.com 
>>>> <mailto:sergi.mateo.bellido at gmail.com>> wrote:
>>>>
>>>>     Hi Cory,
>>>>
>>>>     Thanks for your time. I have been playing a bit with the files
>>>>     too and I realized that replacing the whole_extent of each
>>>>     *.vti  by the whole dataset everything works.
>>>>
>>>>     I would like to generate something like this:
>>>>     http://vtk.1045678.n5.nabble.com/Example-vti-file-td3381382.html .
>>>>     In this example, each imagedata has whole_extent=whole size but
>>>>     its pieces only contain a portion of the whole dataset. Does
>>>>     this configuration make sense?
>>>>
>>>>     I have been trying to generate something like that but I
>>>>     failed. My code looks like this one:
>>>>     http://www.vtk.org/Wiki/VTK/Examples/Cxx/IO/WriteVTI but using
>>>>     VtkFloatArray as buffers and attaching them to the
>>>>     VtkImageData. I tried defining the set of the VtkImageData as
>>>>     the whole dataset and defining the VtkFloatArrays of the size
>>>>     of each portion but it didn't work :(
>>>>
>>>>     Any clue?
>>>>
>>>>     Thanks!
>>>>     Sergi
>>>>
>>>>
>>>>     On 07/09/2015 05:00 PM, Cory Quamen wrote:
>>>>>     Hi Sergi,
>>>>>
>>>>>     I played with your data set a little but haven't found what is
>>>>>     wrong. I am suspicious of two things in the data file, the
>>>>>     extent and the offset in the second data array (it looks too
>>>>>     small).
>>>>>
>>>>>     What are the dimensions of your grid? Note that the whole
>>>>>     extent upper values need to be the dimension - 1, e.g., for a
>>>>>     300x300x300 grid, the whole extent should be 0 299 0 299 0 299.
>>>>>
>>>>>     Thanks,
>>>>>     Cory
>>>>>
>>>>>     On Wed, Jul 1, 2015 at 12:27 PM, Sergi Mateo Bellido
>>>>>     <sergi.mateo.bellido at gmail.com
>>>>>     <mailto:sergi.mateo.bellido at gmail.com>> wrote:
>>>>>
>>>>>         Hi Cory,
>>>>>
>>>>>         Thanks for your time. These data files have been produced
>>>>>         by a software that I'm developing with some colleagues.
>>>>>
>>>>>         Best regards,
>>>>>
>>>>>         Sergi
>>>>>
>>>>>
>>>>>         On 07/01/2015 03:59 PM, Cory Quammen wrote:
>>>>>>         Sergi,
>>>>>>
>>>>>>         I can confirm the crash you are seeing in the same
>>>>>>         location in the code. I'm looking for the cause.
>>>>>>
>>>>>>         What software produced these data files?
>>>>>>
>>>>>>         Thanks,
>>>>>>         Cory
>>>>>>
>>>>>>         On Wed, Jul 1, 2015 at 1:59 AM, Sergi Mateo Bellido
>>>>>>         <sergi.mateo.bellido at gmail.com
>>>>>>         <mailto:sergi.mateo.bellido at gmail.com>> wrote:
>>>>>>
>>>>>>             Hi Cory,
>>>>>>
>>>>>>             Thanks for your answer. I reproduced the segfault in
>>>>>>             two different ways, but it's always after loading a
>>>>>>             data set:
>>>>>>             - After loading a data set, I tried to play the
[...]
POINT_DATA 8
FIELD FieldData 1
Index 1 8 long
0 1 2 3 4 5 6 7
________________________________
Von: Dan Lipsa [dan.lipsa at kitware.com]
Gesendet: Freitag, 7. August 2015 05:11
Bis: Schubert, Raphael; paraview at paraview.org; vtkusers at vtk.org
Betreff: Re: [Paraview] (no subject)

Raphael,
Indeed, the FIELD definitions have to be after the dataset details according to:

http://www.vtk.org/wp-content/uploads/2015/04/file-formats.pdf



On Thu, Aug 6, 2015 at 11:14 AM Schubert, Raphael <raphael.schubert at iwm.fraunhofer.de<mailto:raphael.schubert at iwm.fraunhofer.de>> wrote:
I use the following script to generate three vtk files containing different dataset types and an additional FIELD.

import numpy as np
import vtk
from vtk.util.numpy_support import numpy_to_vtk

for dataset in (vtk.vtkStructuredPoints,
                vtk.vtkRectilinearGrid,
                vtk.vtkPolyData):

    vtkData = dataset()

    if dataset is vtk.vtkStructuredPoints:
        vtkWriter = vtk.vtkStructuredPointsWriter()

        vtkData.SetOrigin(0.0, 0.0, 0.0)
        vtkData.SetSpacing(1.0, 1.0, 1.0)
        vtkData.SetExtent(0, 1, 0, 1, 0, 1)

    elif dataset is vtk.vtkPolyData:
        vtkWriter = vtk.vtkPolyDataWriter()

        vtkPoints = vtk.vtkPoints()
        vtkPoints.SetData(numpy_to_vtk(np.asarray(
            [[0.0, 0.0, 0.0],
             [1.0, 0.0, 0.0],
             [0.0, 1.0, 0.0],
             [1.0, 1.0, 0.0],
             [0.0, 0.0, 1.0],
             [1.0, 0.0, 1.0],
             [0.0, 1.0, 1.0],
             [1.0, 1.0, 1.0]])))
        vtkData.SetPoints(vtkPoints)

    elif dataset is vtk.vtkRectilinearGrid:
        vtkWriter = vtk.vtkRectilinearGridWriter()

        vtkData.SetDimensions(2,2,2)
        vtkData.SetXCoordinates(numpy_to_vtk(np.asarray([0.0, 1.0])))
        vtkData.SetYCoordinates(numpy_to_vtk(np.asarray([0.0, 1.0])))
        vtkData.SetZCoordinates(numpy_to_vtk(np.asarray([0.0, 1.0])))

    # file scope definition of Pi
    vtkArray = numpy_to_vtk(np.asarray(3.141).reshape(1,1),deep=1)
    vtkArray.SetName("Pi")
    vtkData.GetFieldData().AddArray(vtkArray)

    vtkWriter.SetFileName(str(dataset) + ".vtk")
    vtkWriter.SetHeader("")
    vtkWriter.SetFileTypeToASCII()

    vtkWriter.SetInput(vtkData)
    vtkWriter.Write()

/endscript

The files generated from this are
# vtk DataFile Version 3.0

ASCII
DATASET POLYDATA
FIELD FieldData 1
Pi 1 1 double
3.141
POINTS 8 double
0 0 0 1 0 0 0 1 0
1 1 0 0 0 1 1 0 1
0 1 1 1 1 1

# vtk DataFile Version 3.0

ASCII
DATASET RECTILINEAR_GRID
FIELD FieldData 1
Pi 1 1 double
3.141
DIMENSIONS 2 2 2
X_COORDINATES 2 double
0 1
Y_COORDINATES 2 double
0 1
Z_COORDINATES 2 double
0 1

# vtk DataFile Version 3.0

ASCII
DATASET STRUCTURED_POINTS
FIELD FieldData 1
Pi 1 1 double
3.141
DIMENSIONS 2 2 2
SPACING 1 1 1
ORIGIN 0 0 0

Note the FIELD preceding the dataset details. All files can be read back into python without problems, but when trying to view each file in using Paraview 4.3.1, things get interesting:

- POLYDATA works.
- RECTILINEAR_GRID produces an error (which, btw, contains a typo), refuses to render anything but displays everything correctly in the Information tab.

ERROR: In /home/kitware/Dashboards/buildbot/paraview-debian4dash-linux-shared-release_qt4_superbuild/source-paraview/VTK/IO/Parallel/vtkPDataSetReader.cxx, line 701
vtkPDataSetReader (0x8874010): Expecting 'DIMENSIONS' insted of: FIELD

- STRUCTURED_POINTS does not produce any errors, still refuses to render but displays everything correctly in the Information tab.

If I now (manually) put the FIELDS definition after the dataset details, everything works fine.

Is this  problem with Paraview, or am I doing something with the vtk format that should not be possible at all? I got the idea from http://www.visitusers.org/index.php?title=Time_and_Cycle_in_VTK_files.

Thanks
Raphael

Software versions:

Paraview 4.3.1 Linux 64bit

Python 2.7.8 |Anaconda 2.1.0 (64-bit)| (default, Aug 21 2014, 18:22:21)
[GCC 4.4.7 20120313 (Red Hat 4.4.7-1)] on linux2

vtk.vtkVersion().GetVTKVersion()
'5.10.1'

_______________________________________________
Powered by www.kitware.com<http://www.kitware.com>

Visit other Kitware open-source projects at http://www.kitware.com/opensource/opensource.html

Please keep messages on-topic and check the ParaView Wiki at: http://paraview.org/Wiki/ParaView

Search the list archives at: http://markmail.org/search/?q=ParaView

Follow this link to subscribe/unsubscribe:
http://public.kitware.com/mailman/listinfo/paraview
-------------- next part --------------
An HTML attachment was scrubbed...
URL: <http://public.kitware.com/pipermail/paraview/attachments/20150807/96323984/attachment.html>

From dave.demarle at kitware.com  Fri Aug  7 10:04:50 2015
From: dave.demarle at kitware.com (David E DeMarle)
Date: Fri, 7 Aug 2015 10:04:50 -0400
Subject: [Paraview] [vtkusers]  (no subject)
In-Reply-To: <13DD8C6B6309B94AA144319F72195FFD3731A521@IWMDAG2.iwm.fraunhofer.de>
References: <13DD8C6B6309B94AA144319F72195FFD3731A238@IWMDAG2.iwm.fraunhofer.de>
 <CADwGrVoy_f8i3Jx5G3C585scJ-o7bHsUdSD7U15ceO-d=cmFpw@mail.gmail.com>
 <13DD8C6B6309B94AA144319F72195FFD3731A521@IWMDAG2.iwm.fraunhofer.de>
Message-ID: <CANjZAi9BJ1RUjWZ=LESfNKgdYANUe6tuHZhtH64ZtGWDS_bEFA@mail.gmail.com>

A single data set has three FIELDs, one the collection of arrays that are
aligned with the geometry(ie points ie nodes) (vtkPointData), one the
collection of arrays that are aligned with the connectivity (aka cells aka
elements) (vtkCellData) and another the collection of arrays which are not
aligned with anything other than the data set (vtkFieldData).

You may have found a bug in the writer. Would you mind filing a bug report
and referencing the email thread?

cheers


David E DeMarle
Kitware, Inc.
R&D Engineer
21 Corporate Drive
Clifton Park, NY 12065-8662
Phone: 518-881-4909

On Fri, Aug 7, 2015 at 5:01 AM, Schubert, Raphael <
raphael.schubert at iwm.fraunhofer.de> wrote:

> The way I understand the file format specification it should be illegal to
> define a FIELD dataset in addition to, e.g, STRUCTURED_POINTS, as I can
> find it neither explicitly allowed (there is only mention of one dataset
> per file) nor presented in an example. It therefore seems like an
> accidental feature in vtk that I can actually read back the produced files.
>
> Am I missing something in the file format?
>
> Maybe I presented this poorly, please let me give another example with
> additional point data, also straight out of python. Here are two fields,
> one in the dataset section, and one in the point data section. By my
> reading of the file format spec, the field in the dataset section should
> not be permitted to be there, even after the details for the
> STRUCTURED_POINTS.
>
> # vtk DataFile Version 3.0
>
> ASCII
> DATASET STRUCTURED_POINTS
> FIELD FieldData 1
> Pi 1 1 double
> 3.141
> DIMENSIONS 2 2 2
> SPACING 1 1 1
> ORIGIN 0 0 0
> POINT_DATA 8
> FIELD FieldData 1
> Index 1 8 long
> 0 1 2 3 4 5 6 7
> ------------------------------
> *Von:* Dan Lipsa [dan.lipsa at kitware.com]
> *Gesendet:* Freitag, 7. August 2015 05:11
> *Bis:* Schubert, Raphael; paraview at paraview.org; vtkusers at vtk.org
> *Betreff:* Re: [Paraview] (no subject)
>
> Raphael,
> Indeed, the FIELD definitions have to be after the dataset details
> according to:
>
> http://www.vtk.org/wp-content/uploads/2015/04/file-formats.pdf
>
>
>
> On Thu, Aug 6, 2015 at 11:14 AM Schubert, Raphael <
> raphael.schubert at iwm.fraunhofer.de> wrote:
>
>> I use the following script to generate three vtk files containing
>> different dataset types and an additional FIELD.
>>
>> import numpy as np
>> import vtk
>> from vtk.util.numpy_support import numpy_to_vtk
>>
>> for dataset in (vtk.vtkStructuredPoints,
>>                 vtk.vtkRectilinearGrid,
>>                 vtk.vtkPolyData):
>>
>>     vtkData = dataset()
>>
>>     if dataset is vtk.vtkStructuredPoints:
>>         vtkWriter = vtk.vtkStructuredPointsWriter()
>>
>>         vtkData.SetOrigin(0.0, 0.0, 0.0)
>>         vtkData.SetSpacing(1.0, 1.0, 1.0)
>>         vtkData.SetExtent(0, 1, 0, 1, 0, 1)
>>
>>     elif dataset is vtk.vtkPolyData:
>>         vtkWriter = vtk.vtkPolyDataWriter()
>>
>>         vtkPoints = vtk.vtkPoints()
>>         vtkPoints.SetData(numpy_to_vtk(np.asarray(
>>             [[0.0, 0.0, 0.0],
>>              [1.0, 0.0, 0.0],
>>              [0.0, 1.0, 0.0],
>>              [1.0, 1.0, 0.0],
>>              [0.0, 0.0, 1.0],
>>              [1.0, 0.0, 1.0],
>>              [0.0, 1.0, 1.0],
>>              [1.0, 1.0, 1.0]])))
>>         vtkData.SetPoints(vtkPoints)
>>
>>     elif dataset is vtk.vtkRectilinearGrid:
>>         vtkWriter = vtk.vtkRectilinearGridWriter()
>>
>>         vtkData.SetDimensions(2,2,2)
>>         vtkData.SetXCoordinates(numpy_to_vtk(np.asarray([0.0, 1.0])))
>>         vtkData.SetYCoordinates(numpy_to_vtk(np.asarray([0.0, 1.0])))
>>         vtkData.SetZCoordinates(numpy_to_vtk(np.asarray([0.0, 1.0])))
>>
>>     # file scope definition of Pi
>>     vtkArray = numpy_to_vtk(np.asarray(3.141).reshape(1,1),deep=1)
>>     vtkArray.SetName("Pi")
>>     vtkData.GetFieldData().AddArray(vtkArray)
>>
>>     vtkWriter.SetFileName(str(dataset) + ".vtk")
>>     vtkWriter.SetHeader("")
>>     vtkWriter.SetFileTypeToASCII()
>>
>>     vtkWriter.SetInput(vtkData)
>>     vtkWriter.Write()
>>
>> /endscript
>>
>> The files generated from this are
>> # vtk DataFile Version 3.0
>>
>> ASCII
>> DATASET POLYDATA
>> FIELD FieldData 1
>> Pi 1 1 double
>> 3.141
>> POINTS 8 double
>> 0 0 0 1 0 0 0 1 0
>> 1 1 0 0 0 1 1 0 1
>> 0 1 1 1 1 1
>>
>> # vtk DataFile Version 3.0
>>
>> ASCII
>> DATASET RECTILINEAR_GRID
>> FIELD FieldData 1
>> Pi 1 1 double
>> 3.141
>> DIMENSIONS 2 2 2
>> X_COORDINATES 2 double
>> 0 1
>> Y_COORDINATES 2 double
>> 0 1
>> Z_COORDINATES 2 double
>> 0 1
>>
>> # vtk DataFile Version 3.0
>>
>> ASCII
>> DATASET STRUCTURED_POINTS
>> FIELD FieldData 1
>> Pi 1 1 double
>> 3.141
>> DIMENSIONS 2 2 2
>> SPACING 1 1 1
>> ORIGIN 0 0 0
>>
>> Note the FIELD preceding the dataset details. All files can be read back
>> into python without problems, but when trying to view each file in using
>> Paraview 4.3.1, things get interesting:
>>
>> - POLYDATA works.
>> - RECTILINEAR_GRID produces an error (which, btw, contains a typo),
>> refuses to render anything but displays everything correctly in the
>> Information tab.
>>
>> ERROR: In
>> /home/kitware/Dashboards/buildbot/paraview-debian4dash-linux-shared-release_qt4_superbuild/source-paraview/VTK/IO/Parallel/vtkPDataSetReader.cxx,
>> line 701
>> vtkPDataSetReader (0x8874010): Expecting 'DIMENSIONS' insted of: FIELD
>>
>> - STRUCTURED_POINTS does not produce any errors, still refuses to render
>> but displays everything correctly in the Information tab.
>>
>> If I now (manually) put the FIELDS definition after the dataset details,
>> everything works fine.
>>
>> Is this  problem with Paraview, or am I doing something with the vtk
>> format that should not be possible at all? I got the idea from
>> http://www.visitusers.org/index.php?title=Time_and_Cycle_in_VTK_files.
>>
>> Thanks
>> Raphael
>>
>> Software versions:
>>
>> Paraview 4.3.1 Linux 64bit
>>
>> Python 2.7.8 |Anaconda 2.1.0 (64-bit)| (default, Aug 21 2014, 18:22:21)
>> [GCC 4.4.7 20120313 (Red Hat 4.4.7-1)] on linux2
>>
>> vtk.vtkVersion().GetVTKVersion()
>> '5.10.1'
>>
>> _______________________________________________
>> Powered by www.kitware.com
>>
>> Visit other Kitware open-source projects at
>> http://www.kitware.com/opensource/opensource.html
>>
>> Please keep messages on-topic and check the ParaView Wiki at:
>> http://paraview.org/Wiki/ParaView
>>
>> Search the list archives at: http://markmail.org/search/?q=ParaView
>>
>> Follow this link to subscribe/unsubscribe:
>> http://public.kitware.com/mailman/listinfo/paraview
>>
>
> _______________________________________________
> Powered by www.kitware.com
>
> Visit other Kitware open-source projects at
> http://www.kitware.com/opensource/opensource.html
>
> Please keep messages on-topic and check the VTK FAQ at:
> http://www.vtk.org/Wiki/VTK_FAQ
>
> Search the list archives at: http://markmail.org/search/?q=vtkusers
>
> Follow this link to subscribe/unsubscribe:
> http://public.kitware.com/mailman/listinfo/vtkusers
>
>
-------------- next part --------------
An HTML attachment was scrubbed...
URL: <http://public.kitware.com/pipermail/paraview/attachments/20150807/4ec62cad/attachment.html>

From dan.lipsa at kitware.com  Fri Aug  7 10:16:31 2015
From: dan.lipsa at kitware.com (Dan Lipsa)
Date: Fri, 07 Aug 2015 14:16:31 +0000
Subject: [Paraview] [vtkusers]  (no subject)
In-Reply-To: <13DD8C6B6309B94AA144319F72195FFD3731A521@IWMDAG2.iwm.fraunhofer.de>
References: <13DD8C6B6309B94AA144319F72195FFD3731A238@IWMDAG2.iwm.fraunhofer.de>
 <CADwGrVoy_f8i3Jx5G3C585scJ-o7bHsUdSD7U15ceO-d=cmFpw@mail.gmail.com>
 <13DD8C6B6309B94AA144319F72195FFD3731A521@IWMDAG2.iwm.fraunhofer.de>
Message-ID: <CADwGrVpOiqDERy27moLAQ-mYxwf08SqMFuc5rbjE+e1Re_z++A@mail.gmail.com>

Hi Raphael,

On Fri, Aug 7, 2015 at 5:02 AM Schubert, Raphael <
raphael.schubert at iwm.fraunhofer.de> wrote:

> The way I understand the file format specification it should be illegal to
> define a FIELD dataset in addition to, e.g, STRUCTURED_POINTS, as I can
> find it neither explicitly allowed (there is only mention of one dataset
> per file) nor presented in an example. It therefore seems like an
> accidental feature in vtk that I can actually read back the produced files.
>

A FIELD dataset is a way to specify data without topological or geometrical
structure. One can also define FIELD arrays after CELL_DATA or POINT_DATA
for a dataset. Look at the first example on page 7. In the CELL_DATA
section there is a field arrays.



>
-------------- next part --------------
An HTML attachment was scrubbed...
URL: <http://public.kitware.com/pipermail/paraview/attachments/20150807/8c7c8d23/attachment.html>

From dan.lipsa at kitware.com  Fri Aug  7 12:39:28 2015
From: dan.lipsa at kitware.com (Dan Lipsa)
Date: Fri, 07 Aug 2015 16:39:28 +0000
Subject: [Paraview] [vtkusers]  (no subject)
In-Reply-To: <CADwGrVpOiqDERy27moLAQ-mYxwf08SqMFuc5rbjE+e1Re_z++A@mail.gmail.com>
References: <13DD8C6B6309B94AA144319F72195FFD3731A238@IWMDAG2.iwm.fraunhofer.de>
 <CADwGrVoy_f8i3Jx5G3C585scJ-o7bHsUdSD7U15ceO-d=cmFpw@mail.gmail.com>
 <13DD8C6B6309B94AA144319F72195FFD3731A521@IWMDAG2.iwm.fraunhofer.de>
 <CADwGrVpOiqDERy27moLAQ-mYxwf08SqMFuc5rbjE+e1Re_z++A@mail.gmail.com>
Message-ID: <CADwGrVoRB6=dcMx9qCSLsRnK+WL6KC7F2CKX=6Q=_E4cHurcqw@mail.gmail.com>

Raphael,
In talking to Dave, it seems that indeed you have found a bug in the writer
(and in the specification). It does not seem to be a way to save field data
unless your dataset is of type FIELD (a collection of arrays). The arrays
attached to POINT_DATA (or CELL_DATA) which are designated as FIELD have to
have the same number of tuples as the points (or cells). The terminology is
kind of confusing as well. Would you mind filing a bug report. Thanks,
Dan


On Fri, Aug 7, 2015 at 10:16 AM Dan Lipsa <dan.lipsa at kitware.com> wrote:

> Hi Raphael,
>
> On Fri, Aug 7, 2015 at 5:02 AM Schubert, Raphael <
> raphael.schubert at iwm.fraunhofer.de> wrote:
>
>> The way I understand the file format specification it should be illegal
>> to define a FIELD dataset in addition to, e.g, STRUCTURED_POINTS, as I can
>> find it neither explicitly allowed (there is only mention of one dataset
>> per file) nor presented in an example. It therefore seems like an
>> accidental feature in vtk that I can actually read back the produced files.
>>
>
> A FIELD dataset is a way to specify data without topological or
> geometrical structure. One can also define FIELD arrays after CELL_DATA or
> POINT_DATA for a dataset. Look at the first example on page 7. In the
> CELL_DATA section there is a field arrays.
>
>
>
>>
-------------- next part --------------
An HTML attachment was scrubbed...
URL: <http://public.kitware.com/pipermail/paraview/attachments/20150807/c9e96b65/attachment.html>

From berk.geveci at kitware.com  Fri Aug  7 13:08:32 2015
From: berk.geveci at kitware.com (Berk Geveci)
Date: Fri, 7 Aug 2015 13:08:32 -0400
Subject: [Paraview] vtkTransmitImageDataPiece question
In-Reply-To: <55C100EE.50807@nasa.gov>
References: <55C100EE.50807@nasa.gov>
Message-ID: <CAE32kpWvMxdCWz5s9uJQH01arxHJDD=nZUWv2XKwFwP93_C2+Q@mail.gmail.com>

Hey Jeff,

Can you clarify a bit? What kind of wrong is the output?

Also, I would probably do this a bit differently, assuming you use a newer
ParaView (>= 4.2). The issue is that vtkTransmitImageDataPiece is not a
"CAN_PRODUCE_SUB_EXTENT()" filter. Rather it is a
"CAN_HANDLE_PIECE_REQUEST()" filter. Meaning that it wants to determine the
extents of the output based on the piece request it receives. So some
changes:

* Swap CAN_PRODUCE_SUB_EXTENT() with CAN_HANDLE_PIECE_REQUEST() in request
info.
* In the main script, do something like this:

executive = self.GetExecutive()
outInfo = executive.GetOutputInformation(0)
#updateExtent = [executive.UPDATE_EXTENT().Get(outInfo, i) for i in
xrange(6)]
#imageData = self.GetOutput()
#imageData.SetExtent(updateExtent)
# >> this probably needs to happen on rank 0 only
myout = ns.numpy_to_vtk(bmag.ravel(),1,vtk.VTK_FLOAT)
myout.SetName("B field magnitude")
imageData.GetPointData().SetScalars(myout)
tp = vtk.vtkTrivialProducer()
tp.SetOutput(imageData)
tp.SetWholeExtent(0, mesh.MX-1, 0, mesh.MY-1, 0, mesh.MZ-1)
xmit = vtk.vtkTransmitImageDataPiece()
xmit.SetInputConnection(tp.GetOutputPort())
xmit.UpdateInformation()
xmit.SetUpdateExtent(rank, nranks, 0)
xmit.Update()
self.GetOutput().ShallowCopy(xmit,GetOutput())

I didn't verify the code so it may need tweaking.

Best,
-berk


On Tue, Aug 4, 2015 at 2:14 PM, Jeff Becker <jeffrey.c.becker at nasa.gov>
wrote:

> Hi. I'm trying to run a Python Programmable source across four nodes
> (started with mpirun -np 4 pvserver). My script contains the following
> code, but the output looks wrong, so I'm not sure if the extents are
> right.  The partitioning among nodes is correct (using processId filter).
> Also I'm careful to set Output Data Set Type to vtkImageData.
>
> import vtk
> import vtk.util.numpy_support as ns
> contr = vtk.vtkMultiProcessController.GetGlobalController()
> nranks = contr.GetNumberOfProcesses()
> rank = contr.GetLocalProcessId()
>
> ...
> executive = self.GetExecutive()
> outInfo = executive.GetOutputInformation(0)
> updateExtent = [executive.UPDATE_EXTENT().Get(outInfo, i) for i in
> xrange(6)]
> imageData = self.GetOutput()
> imageData.SetExtent(updateExtent)
> myout = ns.numpy_to_vtk(bmag.ravel(),1,vtk.VTK_FLOAT)
> myout.SetName("B field magnitude")
> imageData.GetPointData().SetScalars(myout)
> tp = vtk.vtkTrivialProducer()
> tp.SetOutput(imageData)
> tp.SetWholeExtent(0, mesh.MX-1, 0, mesh.MY-1, 0, mesh.MZ-1)
> xmit = vtk.vtkTransmitImageDataPiece()
> xmit.SetInputConnection(tp.GetOutputPort())
> xmit.UpdateInformation()
> xmit.SetUpdateExtent(rank, nranks, 0)
> xmit.Update()
>
> For completeness, here is my requestInformation script (mesh has
> dimensions, and coordinate arrays for each of X,Y,Z)
>
> executive = self.GetExecutive()
> outInfo = executive.GetOutputInformation(0)
> outInfo.Set(vtk.vtkAlgorithm.CAN_PRODUCE_SUB_EXTENT(), 1)
> outInfo.Set(executive.WHOLE_EXTENT(), 0, mesh.MX-1, 0, mesh.MY-1, 0,
> mesh.MZ-1)
> xspacing = (mesh.xcoords[-1] - mesh.xcoords[0])/mesh.MX
> yspacing = (mesh.ycoords[-1] - mesh.ycoords[0])/mesh.MY
> zspacing = (mesh.zcoords[-1] - mesh.zcoords[0])/mesh.MZ
> outInfo.Set(vtk.vtkDataObject.SPACING(), xspacing, yspacing, zspacing)
>
> This is what I've been able to come up with after spending much time
> reading documentation and examples, but I've obviously missed something.
> Please advise. Thanks.
>
> -jeff
>
> _______________________________________________
> Powered by www.kitware.com
>
> Visit other Kitware open-source projects at